# LAMMPS data file written by OVITO Basic 3.11.2

7260 atoms
3 atom types

0.0 58.9106 xlo xhi
0.0 51.0180761522 ylo yhi
0.0 39.1619 zlo zhi
-29.4553 0.0 0.0 xy xz yz

Masses

1 15.9994 # O
2 1.00794 # H
3 195.078 # Pt

Atoms # full

1 1 3 0.0 1.402955939 0.8096568685 1.000194926
2 1 3 0.0 2.94553e-04 3.2391376549 1.000194926
3 1 3 0.0 -1.402366833 5.6686184413 1.000194926
4 1 3 0.0 4.207689605 0.8096568685 1.000194926
5 1 3 0.0 2.805028219 3.2391376549 1.000194926
6 1 3 0.0 1.402366833 5.6686184413 1.000194926
7 1 3 0.0 7.013012377 0.8096568685 1.000194926
8 1 3 0.0 5.610350991 3.2391376549 1.000194926
9 1 3 0.0 4.207689605 5.6686184413 1.000194926
10 1 3 0.0 0.0 0.0 3.290382838
11 1 3 0.0 -1.402661386 2.4294807864 3.290382838
12 1 3 0.0 -2.805322772 4.8589615727 3.290382838
13 1 3 0.0 2.805322772 0.0 3.290382838
14 1 3 0.0 1.402661386 2.4294807864 3.290382838
15 1 3 0.0 1.3322676296e-15 4.8589615727 3.290382838
16 1 3 0.0 5.610645544 0.0 3.290382838
17 1 3 0.0 4.207984158 2.4294807864 3.290382838
18 1 3 0.0 2.805322772 4.8589615727 3.290382838
19 1 3 0.0 0.046539374 1.5203386693 5.342466398
20 1 3 0.0 -1.521071692 3.9814506629 5.454077813
21 1 3 0.0 -2.848916616 6.4343997643 5.403558962
22 1 3 0.0 2.84832751 1.5458477074 5.438021434
23 1 3 0.0 1.327844924 4.0141022317 5.334634018
24 1 3 0.0 0.076878333 6.4675615138 5.368313252
25 1 3 0.0 5.668377932 1.5172775848 5.35734792
26 1 3 0.0 4.204449522 3.9263511407 5.413741056
27 1 3 0.0 2.88367387 6.4343997643 5.474050382
28 1 3 0.0 1.709585612 0.8703683792 7.657717926
29 1 3 0.0 0.025920664 3.1753650597 7.597800219
30 1 3 0.0 -1.531970153 5.6665777182 7.497937374
31 1 3 0.0 4.354671552 0.5316083535 7.729384203
32 1 3 0.0 2.675424899 3.3095426 7.611115265
33 1 3 0.0 1.541101296 5.5844386156 7.748965153
34 1 3 0.0 7.181496693 0.7474148156 7.716852395
35 1 3 0.0 5.739954311 2.9381310056 7.656543069
36 1 3 0.0 4.249221578 5.3303685964 7.613856598
37 1 3 0.0 -3.828599894 6.9925375174 9.70040263
38 1 3 0.0 -1.076002109 2.3157104765 10.032887161
39 1 3 0.0 5.37264672 4.5171404625 9.945164505
40 1 3 0.0 3.015044508 0.0224479535 10.083797631
41 1 3 0.0 1.58764067 2.5376391078 9.933807554
42 1 3 0.0 -0.324597406 4.849778319 9.592315786
43 1 3 0.0 5.854829981 0.3413109295 9.955346599
44 1 3 0.0 4.107836138 2.2998948729 9.597015214
45 1 3 0.0 2.633598373 5.0921141807 10.111994199
46 1 1 0.0 -1.2076673 6.9823339022 12.075571865
47 1 1 0.0 -2.571153137 4.6002999266 12.017612253
48 1 1 0.0 5.562927958 0.1601967591 12.134314715
49 1 1 0.0 -1.168786304 2.4468269323 12.085753959
50 1 1 0.0 2.548178003 5.1298675571 12.274514317
51 1 1 0.0 1.603841085 2.3299955379 12.294095267
52 1 2 0.0 0.311637074 7.2853812745 12.305060599
53 1 2 0.0 -1.892797578 3.829416796 12.191882708
54 1 2 0.0 1.816802904 3.2937269964 12.513793526
55 1 2 0.0 1.96761404 6.6466349611 12.310151646
56 1 2 0.0 6.559989863 1.8585885142 12.350096784
57 1 2 0.0 0.654791319 2.2881607154 12.500870099
58 1 2 0.0 2.357896765 0.3831457519 12.478939435
59 1 2 0.0 -2.132858273 5.5227067435 12.076355103
60 1 2 0.0 3.511366313 5.0839512886 12.460533342
61 1 3 0.0 9.818335149 0.8096568685 1.000194926
62 1 3 0.0 8.415673763 3.2391376549 1.000194926
63 1 3 0.0 7.013012377 5.6686184413 1.000194926
64 1 3 0.0 12.623657921 0.8096568685 1.000194926
65 1 3 0.0 11.220996535 3.2391376549 1.000194926
66 1 3 0.0 9.818335149 5.6686184413 1.000194926
67 1 3 0.0 15.428980693 0.8096568685 1.000194926
68 1 3 0.0 14.026319307 3.2391376549 1.000194926
69 1 3 0.0 12.623657921 5.6686184413 1.000194926
70 1 3 0.0 8.415968316 0.0 3.290382838
71 1 3 0.0 7.01330693 2.4294807864 3.290382838
72 1 3 0.0 5.610645544 4.8589615727 3.290382838
73 1 3 0.0 11.221291088 0.0 3.290382838
74 1 3 0.0 9.818629702 2.4294807864 3.290382838
75 1 3 0.0 8.415968316 4.8589615727 3.290382838
76 1 3 0.0 14.02661386 0.0 3.290382838
77 1 3 0.0 12.623952474 2.4294807864 3.290382838
78 1 3 0.0 11.221291088 4.8589615727 3.290382838
79 1 3 0.0 8.461918584 1.5203386693 5.342466398
80 1 3 0.0 6.894896624 3.9814506629 5.454077813
81 1 3 0.0 5.5670517 6.4343997643 5.403558962
82 1 3 0.0 11.26370672 1.5458477074 5.438021434
83 1 3 0.0 9.743224134 4.0141022317 5.334634018
84 1 3 0.0 8.492257543 6.4675615138 5.368313252
85 1 3 0.0 14.083757142 1.5172775848 5.35734792
86 1 3 0.0 12.620417838 3.9263511407 5.413741056
87 1 3 0.0 11.299642186 6.4343997643 5.474050382
88 1 3 0.0 10.125553928 0.8703683792 7.657717926
89 1 3 0.0 8.44188898 3.1753650597 7.597800219
90 1 3 0.0 6.883998163 5.6665777182 7.497937374
91 1 3 0.0 12.770639868 0.5316083535 7.729384203
92 1 3 0.0 11.091393215 3.3095426 7.611115265
93 1 3 0.0 9.957069612 5.5844386156 7.748965153
94 1 3 0.0 15.597465009 0.7474148156 7.716852395
95 1 3 0.0 14.155922627 2.9381310056 7.656543069
96 1 3 0.0 12.665189894 5.3303685964 7.613856598
97 1 3 0.0 4.587368422 6.9925375174 9.70040263
98 1 3 0.0 7.339966207 2.3157104765 10.032887161
99 1 3 0.0 13.78802593 4.5171404625 9.945164505
100 1 3 0.0 11.431012824 0.0224479535 10.083797631
101 1 3 0.0 10.003608986 2.5376391078 9.933807554
102 1 3 0.0 8.09137091 4.849778319 9.592315786
103 1 3 0.0 14.270798297 0.3413109295 9.955346599
104 1 3 0.0 12.523804454 2.2998948729 9.597015214
105 1 3 0.0 11.049566689 5.0921141807 10.111994199
106 1 1 0.0 7.20771191 6.9823339022 12.075571865
107 1 1 0.0 5.844815179 4.6002999266 12.017612253
108 1 1 0.0 13.978896274 0.1601967591 12.134314715
109 1 1 0.0 7.246592906 2.4468269323 12.085753959
110 1 1 0.0 10.964146319 5.1298675571 12.274514317
111 1 1 0.0 10.019809401 2.3299955379 12.294095267
112 1 2 0.0 8.727016284 7.2853812745 12.305060599
113 1 2 0.0 6.522581632 3.829416796 12.191882708
114 1 2 0.0 10.23277122 3.2937269964 12.513793526
115 1 2 0.0 10.383582356 6.6466349611 12.310151646
116 1 2 0.0 14.975958179 1.8585885142 12.350096784
117 1 2 0.0 9.070170529 2.2881607154 12.500870099
118 1 2 0.0 10.773275975 0.3831457519 12.478939435
119 1 2 0.0 6.282520937 5.5227067435 12.076355103
120 1 2 0.0 11.926745523 5.0839512886 12.460533342
121 1 3 0.0 18.234303465 0.8096568685 1.000194926
122 1 3 0.0 16.831642079 3.2391376549 1.000194926
123 1 3 0.0 15.428980693 5.6686184413 1.000194926
124 1 3 0.0 21.039626237 0.8096568685 1.000194926
125 1 3 0.0 19.636964851 3.2391376549 1.000194926
126 1 3 0.0 18.234303465 5.6686184413 1.000194926
127 1 3 0.0 23.844949009 0.8096568685 1.000194926
128 1 3 0.0 22.442287623 3.2391376549 1.000194926
129 1 3 0.0 21.039626237 5.6686184413 1.000194926
130 1 3 0.0 16.831347526 0.0 3.290382838
131 1 3 0.0 15.42868614 2.4294807864 3.290382838
132 1 3 0.0 14.026024754 4.8589615727 3.290382838
133 1 3 0.0 19.636670298 0.0 3.290382838
134 1 3 0.0 18.234008912 2.4294807864 3.290382838
135 1 3 0.0 16.831347526 4.8589615727 3.290382838
136 1 3 0.0 22.44199307 0.0 3.290382838
137 1 3 0.0 21.039331684 2.4294807864 3.290382838
138 1 3 0.0 19.636670298 4.8589615727 3.290382838
139 1 3 0.0 16.8778869 1.5203386693 5.342466398
140 1 3 0.0 15.31086494 3.9814506629 5.454077813
141 1 3 0.0 13.983020016 6.4343997643 5.403558962
142 1 3 0.0 19.679675036 1.5458477074 5.438021434
143 1 3 0.0 18.15919245 4.0141022317 5.334634018
144 1 3 0.0 16.908225859 6.4675615138 5.368313252
145 1 3 0.0 22.499725458 1.5172775848 5.35734792
146 1 3 0.0 21.036386154 3.9263511407 5.413741056
147 1 3 0.0 19.715610502 6.4343997643 5.474050382
148 1 3 0.0 18.541522244 0.8703683792 7.657717926
149 1 3 0.0 16.857857296 3.1753650597 7.597800219
150 1 3 0.0 15.299966479 5.6665777182 7.497937374
151 1 3 0.0 21.186019078 0.5316083535 7.729384203
152 1 3 0.0 19.507361531 3.3095426 7.611115265
153 1 3 0.0 18.373037928 5.5844386156 7.748965153
154 1 3 0.0 24.013433325 0.7474148156 7.716852395
155 1 3 0.0 22.571301837 2.9381310056 7.656543069
156 1 3 0.0 21.080569104 5.3303685964 7.613856598
157 1 3 0.0 13.002747632 6.9925375174 9.70040263
158 1 3 0.0 15.755345417 2.3157104765 10.032887161
159 1 3 0.0 22.203994246 4.5171404625 9.945164505
160 1 3 0.0 19.846392034 0.0224479535 10.083797631
161 1 3 0.0 18.419577302 2.5376391078 9.933807554
162 1 3 0.0 16.50675012 4.849778319 9.592315786
163 1 3 0.0 22.686766613 0.3413109295 9.955346599
164 1 3 0.0 20.93977277 2.2998948729 9.597015214
165 1 3 0.0 19.465535005 5.0921141807 10.111994199
166 1 1 0.0 15.623680226 6.9823339022 12.075571865
167 1 1 0.0 14.260194389 4.6002999266 12.017612253
168 1 1 0.0 22.394275484 0.1601967591 12.134314715
169 1 1 0.0 15.662561222 2.4468269323 12.085753959
170 1 1 0.0 19.380114635 5.1298675571 12.274514317
171 1 1 0.0 18.435188611 2.3299955379 12.294095267
172 1 2 0.0 17.1429846 7.2853812745 12.305060599
173 1 2 0.0 14.938549948 3.829416796 12.191882708
174 1 2 0.0 18.64815043 3.2937269964 12.513793526
175 1 2 0.0 18.798961566 6.6466349611 12.310151646
176 1 2 0.0 23.391926495 1.8585885142 12.350096784
177 1 2 0.0 17.486138845 2.2881607154 12.500870099
178 1 2 0.0 19.189244291 0.3831457519 12.478939435
179 1 2 0.0 14.698489253 5.5227067435 12.076355103
180 1 2 0.0 20.342713839 5.0839512886 12.460533342
181 1 3 0.0 26.650271781 0.8096568685 1.000194926
182 1 3 0.0 25.247610395 3.2391376549 1.000194926
183 1 3 0.0 23.844949009 5.6686184413 1.000194926
184 1 3 0.0 29.455594553 0.8096568685 1.000194926
185 1 3 0.0 28.052933167 3.2391376549 1.000194926
186 1 3 0.0 26.650271781 5.6686184413 1.000194926
187 1 3 0.0 32.260917325 0.8096568685 1.000194926
188 1 3 0.0 30.858255939 3.2391376549 1.000194926
189 1 3 0.0 29.455594553 5.6686184413 1.000194926
190 1 3 0.0 25.247315842 0.0 3.290382838
191 1 3 0.0 23.844654456 2.4294807864 3.290382838
192 1 3 0.0 22.44199307 4.8589615727 3.290382838
193 1 3 0.0 28.052638614 0.0 3.290382838
194 1 3 0.0 26.649977228 2.4294807864 3.290382838
195 1 3 0.0 25.247315842 4.8589615727 3.290382838
196 1 3 0.0 30.857961386 0.0 3.290382838
197 1 3 0.0 29.4553 2.4294807864 3.290382838
198 1 3 0.0 28.052638614 4.8589615727 3.290382838
199 1 3 0.0 25.293855216 1.5203386693 5.342466398
200 1 3 0.0 23.726833256 3.9814506629 5.454077813
201 1 3 0.0 22.398988332 6.4343997643 5.403558962
202 1 3 0.0 28.095643352 1.5458477074 5.438021434
203 1 3 0.0 26.575160766 4.0141022317 5.334634018
204 1 3 0.0 25.324194175 6.4675615138 5.368313252
205 1 3 0.0 30.915693774 1.5172775848 5.35734792
206 1 3 0.0 29.451765364 3.9263511407 5.413741056
207 1 3 0.0 28.131578818 6.4343997643 5.474050382
208 1 3 0.0 26.956901454 0.8703683792 7.657717926
209 1 3 0.0 25.273236506 3.1753650597 7.597800219
210 1 3 0.0 23.715345689 5.6665777182 7.497937374
211 1 3 0.0 29.601987394 0.5316083535 7.729384203
212 1 3 0.0 27.923329847 3.3095426 7.611115265
213 1 3 0.0 26.789006244 5.5844386156 7.748965153
214 1 3 0.0 32.428812535 0.7474148156 7.716852395
215 1 3 0.0 30.987270153 2.9381310056 7.656543069
216 1 3 0.0 29.49653742 5.3303685964 7.613856598
217 1 3 0.0 21.418715948 6.9925375174 9.70040263
218 1 3 0.0 24.171313733 2.3157104765 10.032887161
219 1 3 0.0 30.619962562 4.5171404625 9.945164505
220 1 3 0.0 28.26236035 0.0224479535 10.083797631
221 1 3 0.0 26.834956512 2.5376391078 9.933807554
222 1 3 0.0 24.922718436 4.849778319 9.592315786
223 1 3 0.0 31.102145823 0.3413109295 9.955346599
224 1 3 0.0 29.35515198 2.2998948729 9.597015214
225 1 3 0.0 27.880914215 5.0921141807 10.111994199
226 1 1 0.0 24.039648542 6.9823339022 12.075571865
227 1 1 0.0 22.676162705 4.6002999266 12.017612253
228 1 1 0.0 30.8102438 0.1601967591 12.134314715
229 1 1 0.0 24.078529538 2.4468269323 12.085753959
230 1 1 0.0 27.796082951 5.1298675571 12.274514317
231 1 1 0.0 26.851156927 2.3299955379 12.294095267
232 1 2 0.0 25.558952916 7.2853812745 12.305060599
233 1 2 0.0 23.354518264 3.829416796 12.191882708
234 1 2 0.0 27.064118746 3.2937269964 12.513793526
235 1 2 0.0 27.214929882 6.6466349611 12.310151646
236 1 2 0.0 31.807305705 1.8585885142 12.350096784
237 1 2 0.0 25.902107161 2.2881607154 12.500870099
238 1 2 0.0 27.605212607 0.3831457519 12.478939435
239 1 2 0.0 23.114457569 5.5227067435 12.076355103
240 1 2 0.0 28.758682155 5.0839512886 12.460533342
241 1 3 0.0 35.065650991 0.8096568685 1.000194926
242 1 3 0.0 33.662989605 3.2391376549 1.000194926
243 1 3 0.0 32.260328219 5.6686184413 1.000194926
244 1 3 0.0 37.870973763 0.8096568685 1.000194926
245 1 3 0.0 36.468312377 3.2391376549 1.000194926
246 1 3 0.0 35.065650991 5.6686184413 1.000194926
247 1 3 0.0 40.676296535 0.8096568685 1.000194926
248 1 3 0.0 39.273635149 3.2391376549 1.000194926
249 1 3 0.0 37.870973763 5.6686184413 1.000194926
250 1 3 0.0 33.663284158 0.0 3.290382838
251 1 3 0.0 32.260622772 2.4294807864 3.290382838
252 1 3 0.0 30.857961386 4.8589615727 3.290382838
253 1 3 0.0 36.46860693 0.0 3.290382838
254 1 3 0.0 35.065945544 2.4294807864 3.290382838
255 1 3 0.0 33.663284158 4.8589615727 3.290382838
256 1 3 0.0 39.273929702 0.0 3.290382838
257 1 3 0.0 37.871268316 2.4294807864 3.290382838
258 1 3 0.0 36.46860693 4.8589615727 3.290382838
259 1 3 0.0 33.709234426 1.5203386693 5.342466398
260 1 3 0.0 32.142212466 3.9814506629 5.454077813
261 1 3 0.0 30.814367542 6.4343997643 5.403558962
262 1 3 0.0 36.511611668 1.5458477074 5.438021434
263 1 3 0.0 34.991129082 4.0141022317 5.334634018
264 1 3 0.0 33.740162491 6.4675615138 5.368313252
265 1 3 0.0 39.33166209 1.5172775848 5.35734792
266 1 3 0.0 37.86773368 3.9263511407 5.413741056
267 1 3 0.0 36.546958028 6.4343997643 5.474050382
268 1 3 0.0 35.37286977 0.8703683792 7.657717926
269 1 3 0.0 33.689204822 3.1753650597 7.597800219
270 1 3 0.0 32.131314005 5.6665777182 7.497937374
271 1 3 0.0 38.01795571 0.5316083535 7.729384203
272 1 3 0.0 36.338709057 3.3095426 7.611115265
273 1 3 0.0 35.204385454 5.5844386156 7.748965153
274 1 3 0.0 40.844780851 0.7474148156 7.716852395
275 1 3 0.0 39.403238469 2.9381310056 7.656543069
276 1 3 0.0 37.912505736 5.3303685964 7.613856598
277 1 3 0.0 29.834684264 6.9925375174 9.70040263
278 1 3 0.0 32.587282049 2.3157104765 10.032887161
279 1 3 0.0 39.035930878 4.5171404625 9.945164505
280 1 3 0.0 36.678328666 0.0224479535 10.083797631
281 1 3 0.0 35.250924828 2.5376391078 9.933807554
282 1 3 0.0 33.338686752 4.849778319 9.592315786
283 1 3 0.0 39.518114139 0.3413109295 9.955346599
284 1 3 0.0 37.771120296 2.2998948729 9.597015214
285 1 3 0.0 36.296882531 5.0921141807 10.111994199
286 1 1 0.0 32.455616858 6.9823339022 12.075571865
287 1 1 0.0 31.092131021 4.6002999266 12.017612253
288 1 1 0.0 39.226212116 0.1601967591 12.134314715
289 1 1 0.0 32.493908748 2.4468269323 12.085753959
290 1 1 0.0 36.211462161 5.1298675571 12.274514317
291 1 1 0.0 35.267125243 2.3299955379 12.294095267
292 1 2 0.0 33.974332126 7.2853812745 12.305060599
293 1 2 0.0 31.769897474 3.829416796 12.191882708
294 1 2 0.0 35.480087062 3.2937269964 12.513793526
295 1 2 0.0 35.630898198 6.6466349611 12.310151646
296 1 2 0.0 40.223274021 1.8585885142 12.350096784
297 1 2 0.0 34.317486371 2.2881607154 12.500870099
298 1 2 0.0 36.021180923 0.3831457519 12.478939435
299 1 2 0.0 31.530425885 5.5227067435 12.076355103
300 1 2 0.0 37.174650471 5.0839512886 12.460533342
301 1 3 0.0 43.481619307 0.8096568685 1.000194926
302 1 3 0.0 42.078957921 3.2391376549 1.000194926
303 1 3 0.0 40.676296535 5.6686184413 1.000194926
304 1 3 0.0 46.286942079 0.8096568685 1.000194926
305 1 3 0.0 44.884280693 3.2391376549 1.000194926
306 1 3 0.0 43.481619307 5.6686184413 1.000194926
307 1 3 0.0 49.092264851 0.8096568685 1.000194926
308 1 3 0.0 47.689603465 3.2391376549 1.000194926
309 1 3 0.0 46.286942079 5.6686184413 1.000194926
310 1 3 0.0 42.079252474 0.0 3.290382838
311 1 3 0.0 40.676591088 2.4294807864 3.290382838
312 1 3 0.0 39.273929702 4.8589615727 3.290382838
313 1 3 0.0 44.88398614 0.0 3.290382838
314 1 3 0.0 43.481324754 2.4294807864 3.290382838
315 1 3 0.0 42.078663368 4.8589615727 3.290382838
316 1 3 0.0 47.689308912 0.0 3.290382838
317 1 3 0.0 46.286647526 2.4294807864 3.290382838
318 1 3 0.0 44.88398614 4.8589615727 3.290382838
319 1 3 0.0 42.125202742 1.5203386693 5.342466398
320 1 3 0.0 40.558180782 3.9814506629 5.454077813
321 1 3 0.0 39.230335858 6.4343997643 5.403558962
322 1 3 0.0 44.926990878 1.5458477074 5.438021434
323 1 3 0.0 43.406508292 4.0141022317 5.334634018
324 1 3 0.0 42.155541701 6.4675615138 5.368313252
325 1 3 0.0 47.7470413 1.5172775848 5.35734792
326 1 3 0.0 46.283701996 3.9263511407 5.413741056
327 1 3 0.0 44.962926344 6.4343997643 5.474050382
328 1 3 0.0 43.788838086 0.8703683792 7.657717926
329 1 3 0.0 42.105173138 3.1753650597 7.597800219
330 1 3 0.0 40.547282321 5.6665777182 7.497937374
331 1 3 0.0 46.43333492 0.5316083535 7.729384203
332 1 3 0.0 44.754677373 3.3095426 7.611115265
333 1 3 0.0 43.62035377 5.5844386156 7.748965153
334 1 3 0.0 49.260749167 0.7474148156 7.716852395
335 1 3 0.0 47.818617679 2.9381310056 7.656543069
336 1 3 0.0 46.327884946 5.3303685964 7.613856598
337 1 3 0.0 38.250063474 6.9925375174 9.70040263
338 1 3 0.0 41.003250365 2.3157104765 10.032887161
339 1 3 0.0 47.451310088 4.5171404625 9.945164505
340 1 3 0.0 45.094296982 0.0224479535 10.083797631
341 1 3 0.0 43.666893144 2.5376391078 9.933807554
342 1 3 0.0 41.754655068 4.849778319 9.592315786
343 1 3 0.0 47.934082455 0.3413109295 9.955346599
344 1 3 0.0 46.187088612 2.2998948729 9.597015214
345 1 3 0.0 44.712850847 5.0921141807 10.111994199
346 1 1 0.0 40.870996068 6.9823339022 12.075571865
347 1 1 0.0 39.508099337 4.6002999266 12.017612253
348 1 1 0.0 47.641591326 0.1601967591 12.134314715
349 1 1 0.0 40.909877064 2.4468269323 12.085753959
350 1 1 0.0 44.627430477 5.1298675571 12.274514317
351 1 1 0.0 43.683093559 2.3299955379 12.294095267
352 1 2 0.0 42.390300442 7.2853812745 12.305060599
353 1 2 0.0 40.18586579 3.829416796 12.191882708
354 1 2 0.0 43.895466272 3.2937269964 12.513793526
355 1 2 0.0 44.046866514 6.6466349611 12.310151646
356 1 2 0.0 48.639242337 1.8585885142 12.350096784
357 1 2 0.0 42.733454687 2.2881607154 12.500870099
358 1 2 0.0 44.436560133 0.3831457519 12.478939435
359 1 2 0.0 39.945805095 5.5227067435 12.076355103
360 1 2 0.0 45.590029681 5.0839512886 12.460533342
361 1 3 0.0 51.897587623 0.8096568685 1.000194926
362 1 3 0.0 50.494926237 3.2391376549 1.000194926
363 1 3 0.0 49.092264851 5.6686184413 1.000194926
364 1 3 0.0 54.702910395 0.8096568685 1.000194926
365 1 3 0.0 53.300249009 3.2391376549 1.000194926
366 1 3 0.0 51.897587623 5.6686184413 1.000194926
367 1 3 0.0 57.508233167 0.8096568685 1.000194926
368 1 3 0.0 56.105571781 3.2391376549 1.000194926
369 1 3 0.0 54.702910395 5.6686184413 1.000194926
370 1 3 0.0 50.494631684 0.0 3.290382838
371 1 3 0.0 49.091970298 2.4294807864 3.290382838
372 1 3 0.0 47.689308912 4.8589615727 3.290382838
373 1 3 0.0 53.299954456 0.0 3.290382838
374 1 3 0.0 51.89729307 2.4294807864 3.290382838
375 1 3 0.0 50.494631684 4.8589615727 3.290382838
376 1 3 0.0 56.105277228 0.0 3.290382838
377 1 3 0.0 54.702615842 2.4294807864 3.290382838
378 1 3 0.0 53.299954456 4.8589615727 3.290382838
379 1 3 0.0 50.541171058 1.5203386693 5.342466398
380 1 3 0.0 48.974149098 3.9814506629 5.454077813
381 1 3 0.0 47.646304174 6.4343997643 5.403558962
382 1 3 0.0 53.342959194 1.5458477074 5.438021434
383 1 3 0.0 51.822476608 4.0141022317 5.334634018
384 1 3 0.0 50.571510017 6.4675615138 5.368313252
385 1 3 0.0 56.163009616 1.5172775848 5.35734792
386 1 3 0.0 54.699081206 3.9263511407 5.413741056
387 1 3 0.0 53.37889466 6.4343997643 5.474050382
388 1 3 0.0 52.204806402 0.8703683792 7.657717926
389 1 3 0.0 50.520552348 3.1753650597 7.597800219
390 1 3 0.0 48.962661531 5.6665777182 7.497937374
391 1 3 0.0 54.849303236 0.5316083535 7.729384203
392 1 3 0.0 53.170645689 3.3095426 7.611115265
393 1 3 0.0 52.036322086 5.5844386156 7.748965153
394 1 3 0.0 57.676128377 0.7474148156 7.716852395
395 1 3 0.0 56.234585995 2.9381310056 7.656543069
396 1 3 0.0 54.743853262 5.3303685964 7.613856598
397 1 3 0.0 46.66603179 6.9925375174 9.70040263
398 1 3 0.0 49.418629575 2.3157104765 10.032887161
399 1 3 0.0 55.867278404 4.5171404625 9.945164505
400 1 3 0.0 53.509676192 0.0224479535 10.083797631
401 1 3 0.0 52.082272354 2.5376391078 9.933807554
402 1 3 0.0 50.170034278 4.849778319 9.592315786
403 1 3 0.0 56.350050771 0.3413109295 9.955346599
404 1 3 0.0 54.603056928 2.2998948729 9.597015214
405 1 3 0.0 53.128819163 5.0921141807 10.111994199
406 1 1 0.0 49.286964384 6.9823339022 12.075571865
407 1 1 0.0 47.923478547 4.6002999266 12.017612253
408 1 1 0.0 56.057559642 0.1601967591 12.134314715
409 1 1 0.0 49.32584538 2.4468269323 12.085753959
410 1 1 0.0 53.043398793 5.1298675571 12.274514317
411 1 1 0.0 52.098472769 2.3299955379 12.294095267
412 1 2 0.0 50.806268758 7.2853812745 12.305060599
413 1 2 0.0 48.601834106 3.829416796 12.191882708
414 1 2 0.0 52.311434588 3.2937269964 12.513793526
415 1 2 0.0 52.462245724 6.6466349611 12.310151646
416 1 2 0.0 57.054621547 1.8585885142 12.350096784
417 1 2 0.0 51.149423003 2.2881607154 12.500870099
418 1 2 0.0 52.852528449 0.3831457519 12.478939435
419 1 2 0.0 48.361773411 5.5227067435 12.076355103
420 1 2 0.0 54.005997997 5.0839512886 12.460533342
421 1 3 0.0 -2.805028219 8.0980992276 1.000194926
422 1 3 0.0 -4.207689605 10.527580014 1.000194926
423 1 3 0.0 -5.610350991 12.9570608004 1.000194926
424 1 3 0.0 -2.94553e-04 8.0980992276 1.000194926
425 1 3 0.0 -1.402955939 10.527580014 1.000194926
426 1 3 0.0 -2.805617325 12.9570608004 1.000194926
427 1 3 0.0 2.805028219 8.0980992276 1.000194926
428 1 3 0.0 1.402366833 10.527580014 1.000194926
429 1 3 0.0 -2.94553e-04 12.9570608004 1.000194926
430 1 3 0.0 -4.207984158 7.2884423591 3.290382838
431 1 3 0.0 -5.610645544 9.7179231455 3.290382838
432 1 3 0.0 -7.01330693 12.1474039318 3.290382838
433 1 3 0.0 -1.402661386 7.2884423591 3.290382838
434 1 3 0.0 -2.805322772 9.7179231455 3.290382838
435 1 3 0.0 -4.207984158 12.1474039318 3.290382838
436 1 3 0.0 1.402661386 7.2884423591 3.290382838
437 1 3 0.0 2.6645352591e-15 9.7179231455 3.290382838
438 1 3 0.0 -1.402661386 12.1474039318 3.290382838
439 1 3 0.0 -4.161150231 8.8082708477 5.342466398
440 1 3 0.0 -5.72905585 11.269893022 5.454077813
441 1 3 0.0 -7.056606221 13.7223319427 5.403558962
442 1 3 0.0 -1.359362095 8.8337798858 5.438021434
443 1 3 0.0 -2.879844681 11.30203441 5.334634018
444 1 3 0.0 -4.131105825 13.7560038729 5.368313252
445 1 3 0.0 1.460393774 8.8057199439 5.35734792
446 1 3 0.0 -0.003534636 11.2147934998 5.413741056
447 1 3 0.0 -1.324015735 13.7223319427 5.474050382
448 1 3 0.0 -2.498398546 8.1588107383 7.657717926
449 1 3 0.0 -4.182063494 10.4638074188 7.597800219
450 1 3 0.0 -5.739954311 12.9550200773 7.497937374
451 1 3 0.0 0.146687394 7.8200507126 7.729384203
452 1 3 0.0 -1.532559259 10.5979849591 7.611115265
453 1 3 0.0 -2.666588309 12.872370794 7.748965153
454 1 3 0.0 2.973512535 8.0358571747 7.716852395
455 1 3 0.0 1.531970153 10.2265733647 7.656543069
456 1 3 0.0 0.041531973 12.6183007747 7.613856598
457 1 3 0.0 -8.036584052 14.2809798765 9.70040263
458 1 3 0.0 -5.283986267 9.6041528356 10.032887161
459 1 3 0.0 1.164957115 11.8050726409 9.945164505
460 1 3 0.0 -1.19293965 7.3108903126 10.083797631
461 1 3 0.0 -2.620048935 9.8255712861 9.933807554
462 1 3 0.0 -4.532581564 12.1382206781 9.592315786
463 1 3 0.0 1.646845823 7.6297532886 9.955346599
464 1 3 0.0 -0.10014802 9.588337232 9.597015214
465 1 3 0.0 -1.574385785 12.3805565399 10.111994199
466 1 1 0.0 -5.415651458 14.2707762613 12.075571865
467 1 1 0.0 -6.779137295 11.8887422857 12.017612253
468 1 1 0.0 1.3549438 7.4486391182 12.134314715
469 1 1 0.0 -5.376770462 9.7352692914 12.085753959
470 1 1 0.0 -1.659511602 12.4177997354 12.274514317
471 1 1 0.0 -2.604143073 9.618437897 12.294095267
472 1 2 0.0 -3.896052531 14.5733134529 12.305060599
473 1 2 0.0 -6.100781736 11.1178591551 12.191882708
474 1 2 0.0 -2.391181254 10.5821693555 12.513793526
475 1 2 0.0 -2.240370118 13.9350773202 12.310151646
476 1 2 0.0 2.352005705 9.1470308733 12.350096784
477 1 2 0.0 -3.552898286 9.5760928938 12.500870099
478 1 2 0.0 -1.84979284 7.6710779302 12.478939435
479 1 2 0.0 -6.340842431 12.8111491026 12.076355103
480 1 2 0.0 -0.696323292 12.3718834669 12.460533342
481 1 3 0.0 5.610350991 8.0980992276 1.000194926
482 1 3 0.0 4.207689605 10.527580014 1.000194926
483 1 3 0.0 2.805028219 12.9570608004 1.000194926
484 1 3 0.0 8.415673763 8.0980992276 1.000194926
485 1 3 0.0 7.013012377 10.527580014 1.000194926
486 1 3 0.0 5.610350991 12.9570608004 1.000194926
487 1 3 0.0 11.220996535 8.0980992276 1.000194926
488 1 3 0.0 9.818335149 10.527580014 1.000194926
489 1 3 0.0 8.415673763 12.9570608004 1.000194926
490 1 3 0.0 4.207984158 7.2884423591 3.290382838
491 1 3 0.0 2.805322772 9.7179231455 3.290382838
492 1 3 0.0 1.402661386 12.1474039318 3.290382838
493 1 3 0.0 7.01330693 7.2884423591 3.290382838
494 1 3 0.0 5.610645544 9.7179231455 3.290382838
495 1 3 0.0 4.207984158 12.1474039318 3.290382838
496 1 3 0.0 9.818629702 7.2884423591 3.290382838
497 1 3 0.0 8.415968316 9.7179231455 3.290382838
498 1 3 0.0 7.01330693 12.1474039318 3.290382838
499 1 3 0.0 4.254228979 8.8082708477 5.342466398
500 1 3 0.0 2.686912466 11.269893022 5.454077813
501 1 3 0.0 1.359362095 13.7223319427 5.403558962
502 1 3 0.0 7.056017115 8.8337798858 5.438021434
503 1 3 0.0 5.535534529 11.30203441 5.334634018
504 1 3 0.0 4.284273385 13.7560038729 5.368313252
505 1 3 0.0 9.875772984 8.8057199439 5.35734792
506 1 3 0.0 8.41243368 11.2147934998 5.413741056
507 1 3 0.0 7.091952581 13.7223319427 5.474050382
508 1 3 0.0 5.91756977 8.1588107383 7.657717926
509 1 3 0.0 4.233904822 10.4638074188 7.597800219
510 1 3 0.0 2.676014005 12.9550200773 7.497937374
511 1 3 0.0 8.56265571 7.8200507126 7.729384203
512 1 3 0.0 6.883409057 10.5979849591 7.611115265
513 1 3 0.0 5.749380007 12.872370794 7.748965153
514 1 3 0.0 11.389480851 8.0358571747 7.716852395
515 1 3 0.0 9.947938469 10.2265733647 7.656543069
516 1 3 0.0 8.457500289 12.6183007747 7.613856598
517 1 3 0.0 0.379384264 14.2809798765 9.70040263
518 1 3 0.0 3.131982049 9.6041528356 10.032887161
519 1 3 0.0 9.580336325 11.8050726409 9.945164505
520 1 3 0.0 7.223028666 7.3108903126 10.083797631
521 1 3 0.0 5.795919381 9.8255712861 9.933807554
522 1 3 0.0 3.883386752 12.1382206781 9.592315786
523 1 3 0.0 10.062814139 7.6297532886 9.955346599
524 1 3 0.0 8.315820296 9.588337232 9.597015214
525 1 3 0.0 6.841582531 12.3805565399 10.111994199
526 1 1 0.0 2.999727752 14.2707762613 12.075571865
527 1 1 0.0 1.636831021 11.8887422857 12.017612253
528 1 1 0.0 9.770912116 7.4486391182 12.134314715
529 1 1 0.0 3.038608748 9.7352692914 12.085753959
530 1 1 0.0 6.756456714 12.4177997354 12.274514317
531 1 1 0.0 5.811825243 9.618437897 12.294095267
532 1 2 0.0 4.519326679 14.5733134529 12.305060599
533 1 2 0.0 2.314597474 11.1178591551 12.191882708
534 1 2 0.0 6.024787062 10.5821693555 12.513793526
535 1 2 0.0 6.175598198 13.9350773202 12.310151646
536 1 2 0.0 10.767974021 9.1470308733 12.350096784
537 1 2 0.0 4.862480924 9.5760928938 12.500870099
538 1 2 0.0 6.56558637 7.6710779302 12.478939435
539 1 2 0.0 2.074536779 12.8111491026 12.076355103
540 1 2 0.0 7.719055918 12.3718834669 12.460533342
541 1 3 0.0 14.026319307 8.0980992276 1.000194926
542 1 3 0.0 12.623657921 10.527580014 1.000194926
543 1 3 0.0 11.220996535 12.9570608004 1.000194926
544 1 3 0.0 16.831642079 8.0980992276 1.000194926
545 1 3 0.0 15.428980693 10.527580014 1.000194926
546 1 3 0.0 14.026319307 12.9570608004 1.000194926
547 1 3 0.0 19.636964851 8.0980992276 1.000194926
548 1 3 0.0 18.234303465 10.527580014 1.000194926
549 1 3 0.0 16.831642079 12.9570608004 1.000194926
550 1 3 0.0 12.623363368 7.2884423591 3.290382838
551 1 3 0.0 11.220701982 9.7179231455 3.290382838
552 1 3 0.0 9.818040596 12.1474039318 3.290382838
553 1 3 0.0 15.42868614 7.2884423591 3.290382838
554 1 3 0.0 14.026024754 9.7179231455 3.290382838
555 1 3 0.0 12.623363368 12.1474039318 3.290382838
556 1 3 0.0 18.234008912 7.2884423591 3.290382838
557 1 3 0.0 16.831347526 9.7179231455 3.290382838
558 1 3 0.0 15.42868614 12.1474039318 3.290382838
559 1 3 0.0 12.670197295 8.8082708477 5.342466398
560 1 3 0.0 11.102880782 11.269893022 5.454077813
561 1 3 0.0 9.775330411 13.7223319427 5.403558962
562 1 3 0.0 15.471985431 8.8337798858 5.438021434
563 1 3 0.0 13.951502845 11.30203441 5.334634018
564 1 3 0.0 12.700241701 13.7560038729 5.368313252
565 1 3 0.0 18.2917413 8.8057199439 5.35734792
566 1 3 0.0 16.828401996 11.2147934998 5.413741056
567 1 3 0.0 15.507920897 13.7223319427 5.474050382
568 1 3 0.0 14.333538086 8.1588107383 7.657717926
569 1 3 0.0 12.649873138 10.4638074188 7.597800219
570 1 3 0.0 11.091982321 12.9550200773 7.497937374
571 1 3 0.0 16.97803492 7.8200507126 7.729384203
572 1 3 0.0 15.299377373 10.5979849591 7.611115265
573 1 3 0.0 14.165348323 12.872370794 7.748965153
574 1 3 0.0 19.805449167 8.0358571747 7.716852395
575 1 3 0.0 18.363317679 10.2265733647 7.656543069
576 1 3 0.0 16.872879499 12.6183007747 7.613856598
577 1 3 0.0 8.794763474 14.2809798765 9.70040263
578 1 3 0.0 11.547361259 9.6041528356 10.032887161
579 1 3 0.0 17.996304641 11.8050726409 9.945164505
580 1 3 0.0 15.638407876 7.3108903126 10.083797631
581 1 3 0.0 14.211887697 9.8255712861 9.933807554
582 1 3 0.0 12.298765962 12.1382206781 9.592315786
583 1 3 0.0 18.478782455 7.6297532886 9.955346599
584 1 3 0.0 16.731788612 9.588337232 9.597015214
585 1 3 0.0 15.257550847 12.3805565399 10.111994199
586 1 1 0.0 11.415696068 14.2707762613 12.075571865
587 1 1 0.0 10.052210231 11.8887422857 12.017612253
588 1 1 0.0 18.186291326 7.4486391182 12.134314715
589 1 1 0.0 11.454577064 9.7352692914 12.085753959